 Q-Chem 5.1, Q-Chem, Inc., Pleasanton, CA (2018)
 Q-Chem 5.1.0 for Intel X86 EM64T Linux

User input:
--------------------------------------------------------------
$comment
CH2O-opt
$end

$molecule
0 1
C   -0.0000000    0.0000000    0.6133799
O    0.0000000   -0.0000000   -0.6060748
H   -0.0000000    0.9391319    1.1555880
H   -0.0000000   -0.9391319    1.1555880
$end

$rem
BASIS  =  6-31G*
GUI  =  2
JOB_TYPE  =  Optimization
METHOD  =  wB97XD
SCF_CONVERGENCE  =  8
$end

--------------------------------------------------------------

   11    -114.4571814416      5.25e-09  Convergence criterion met
 Total energy in the final basis set =     -114.4571814416
   11    -114.4578075723      7.63e-10  Convergence criterion met
 Total energy in the final basis set =     -114.4578075723
   10    -114.4583723684      4.39e-09  Convergence criterion met
 Total energy in the final basis set =     -114.4583723684
    9    -114.4584805379      3.22e-09  Convergence criterion met
 Total energy in the final basis set =     -114.4584805379
    9    -114.4585301865      3.92e-09  Convergence criterion met
 Total energy in the final basis set =     -114.4585301865
    8    -114.4585470720      9.39e-09  Convergence criterion met
 Total energy in the final basis set =     -114.4585470720
    8    -114.4585647107      9.05e-09  Convergence criterion met
 Total energy in the final basis set =     -114.4585647107
    8    -114.4585680085      6.39e-09  Convergence criterion met
 Total energy in the final basis set =     -114.4585680085

             Standard Nuclear Orientation (Angstroms)
    I     Atom           X                Y                Z
 ----------------------------------------------------------------
    1      C       0.0000000000     0.0000000000     0.5135684153
    2      O       0.0000000000     0.0000000000    -0.6893521965
    3      H       0.9376628713     0.0000000000     1.1042753156
    4      H      -0.9376628713     0.0000000000     1.1042753156
 ----------------------------------------------------------------

    8    -114.4585683216      4.11e-09  Convergence criterion met
 Total energy in the final basis set =     -114.4585683216
 Final energy is   -114.458568321623
 **  OPTIMIZATION CONVERGED  **

             Orbital Energies (a.u.) and Symmetries
 --------------------------------------------------------------

 Alpha MOs, Restricted
 -- Occupied --
-19.290 -10.398  -1.163  -0.731  -0.585  -0.537  -0.485  -0.350
  1 A1    2 A1    3 A1    4 A1    1 B1    5 A1    1 B2    2 B1

 Beta MOs, Restricted
 -- Occupied --
-19.290 -10.398  -1.163  -0.731  -0.585  -0.537  -0.485  -0.350
  1 A1    2 A1    3 A1    4 A1    1 B1    5 A1    1 B2    2 B1

          Ground-State Mulliken Net Atomic Charges

     Atom                 Charge (a.u.)
  ----------------------------------------
      1 C                     0.061224
      2 O                    -0.336967
      3 H                     0.137872
      4 H                     0.137872
  ----------------------------------------
  Sum of atomic charges =    -0.000000

                    Cartesian Multipole Moments
 -----------------------------------------------------------------
    Charge (ESU x 10^10)
                 0.0000
    Dipole Moment (Debye)
         X      -0.0000      Y      -0.0000      Z       2.3017
       Tot       2.3017
    Quadrupole Moments (Debye-Ang)
        XX     -11.4055     XY       0.0000     YY     -11.3939
        XZ      -0.0000     YZ       0.0000     ZZ     -11.8938

 Total job time:  18.85s(wall), 18.86s(cpu)
        *  Thank you very much for using Q-Chem.  Have a nice day.  *
